<?xml version="1.0" encoding="UTF-8"?>

<!-- generated on 2021-11-01 11:34:44 by Eclipse SUMO sumo Version 1.10.0
<configuration xmlns:xsi="http://www.w3.org/2001/XMLSchema-instance" xsi:noNamespaceSchemaLocation="http://sumo.dlr.de/xsd/sumoConfiguration.xsd">

    <input>
        <net-file value="C:\Users\juane\Sumo\2021-11-01-11-34-18\osm.net.xml"/>
        <route-files value="C:\Users\juane\Sumo\2021-11-01-11-34-18\trips.trips.xml"/>
        <additional-files value="C:\Users\juane\Sumo\2021-11-01-11-34-18\osm_stops.add.xml"/>
    </input>

    <output>
        <vehroute-output value="C:\Users\juane\Sumo\2021-11-01-11-34-18\vehroutes.xml"/>
        <stop-output value="C:\Users\juane\Sumo\2021-11-01-11-34-18\stopinfos.xml"/>
    </output>

    <time>
        <begin value="0"/>
    </time>

    <processing>
        <ignore-route-errors value="true"/>
    </processing>

    <routing>
        <device.rerouting.adaptation-interval value="0"/>
    </routing>

    <report>
        <aggregate-warnings value="5"/>
        <error-log value="C:\Users\juane\Sumo\2021-11-01-11-34-18\trips.trips.xml.errorlog"/>
        <no-step-log value="true"/>
    </report>

</configuration>
-->

<routes xmlns:xsi="http://www.w3.org/2001/XMLSchema-instance" xsi:noNamespaceSchemaLocation="http://sumo.dlr.de/xsd/routes_file.xsd">
    <vehicle id="2_subway_L2:0" type="pt_subway" depart="15.00" departLane="0" arrival="79.00">
        <route edges="447856554"/>
        <stop busStop="3699659474" duration="30.00"/>
    </vehicle>

    <vehicle id="4_subway_L2:1" type="pt_subway" depart="27.00" departLane="0" arrival="135.00">
        <route edges="550192971#0 550192971#1"/>
        <stop busStop="3397396654" duration="30.00"/>
        <stop busStop="3397396636" duration="30.00"/>
    </vehicle>

    <vehicle id="8_bus_N0_tornada:0" type="pt_bus" depart="89.00" departLane="1" arrival="241.00">
        <route edges="4079520#1 914891586#2 4079513#1 4079513#2"/>
        <stop busStop="8371290346" duration="30.00"/>
        <stop busStop="5643768378" duration="30.00"/>
        <stop busStop="5609791813" duration="30.00"/>
    </vehicle>

    <vehicle id="3_bus_D20:0" type="pt_bus" depart="17.00" departLane="1" arrival="255.00">
        <route edges="-4751867#2 -4751867#1 -4751867#0 -4079509#24 -4079509#23 -4079509#22 -4079509#21 -4079509#19 -4079509#18 -4079509#17 -4079509#16 -4079509#15 -4079509#14 -4079509#13 -4079509#12 -4079509#11 -4079509#10 -4079509#9 -4079509#8 -4079509#7 -4079509#6 -4079509#5 -4079509#4 -4079509#3 -4079509#2 359739475#0 359739475#1 359739475#2"/>
        <stop busStop="-5728520762" duration="30.00"/>
        <stop busStop="-5728520761" duration="30.00"/>
        <stop busStop="-5728520760" duration="30.00"/>
    </vehicle>

    <vehicle id="17_bus_N28:0" type="pt_bus" depart="173.00" departLane="2" arrival="322.00">
        <route edges="291731094#0 291731094#1 291731094#2 902517724#0 906391081 4079509#1 4079509#3 4079509#4 4079509#5 4079509#6 4079509#7 4079509#8 4079509#9 4079509#10 4079509#11 4079509#12 4079509#13 4079509#14 4079509#15 4079509#16 4079509#17 4079509#18 4079509#19 4079509#21 4079509#22 4079509#23 4079509#24 4751867#0 4751867#1 4751867#2"/>
    </vehicle>

    <vehicle id="12_bus_N9:1" type="pt_bus" depart="132.00" departLane="1" arrival="373.00">
        <route edges="920602947#0 920602947#4 920602947#5 920602947#7 920602947#8 920602947#9 906395262#0 906395262#1 906395262#2 239117584#0 246638753 4079520#0 4079520#1 8380809"/>
        <stop busStop="104459412" duration="30.00"/>
        <stop busStop="6315729763" duration="30.00"/>
    </vehicle>

    <vehicle id="11_bus_N9:0" type="pt_bus" depart="131.00" departLane="1" arrival="380.00">
        <route edges="8380809 239117583#0 239117583#1 239117583#2 239117583#3 239117583#4 239117583#5 239117583#6 239117583#7 239117583#8 239117583#9 239117583#10"/>
        <stop busStop="6315729763" duration="30.00"/>
        <stop busStop="5173125170" duration="30.00"/>
        <stop busStop="8210106347" duration="30.00"/>
    </vehicle>

    <vehicle id="6_bus_D20:1" type="pt_bus" depart="52.00" departLane="1" arrival="407.00">
        <route edges="542284837#0 4751867#2"/>
    </vehicle>

    <vehicle id="28_bus_V17:1" type="pt_bus" depart="362.00" departLane="1" arrival="453.00">
        <route edges="4752296#0 4752296#3 4752296#4 4752296#5 4752296#6 427046677#1 126715484#1"/>
    </vehicle>

    <vehicle id="14_bus_N12:1" type="pt_bus" depart="138.00" departLane="1" arrival="469.00">
        <route edges="920602947#0 920602947#4 920602947#5 920602947#7 920602947#8 920602947#9 906395262#0 906395262#1 906395262#2 239117584#0 246638753 4079520#0 4079520#1 8380809"/>
        <stop busStop="104459412" duration="30.00"/>
        <stop busStop="6315729763" duration="30.00"/>
    </vehicle>

    <vehicle id="13_bus_N12:0" type="pt_bus" depart="137.00" departLane="1" arrival="488.00">
        <route edges="8380809 239117583#0 239117583#1 239117583#2 239117583#3 239117583#4 239117583#5 239117583#6 239117583#7 239117583#8 239117583#9 239117583#10"/>
        <stop busStop="6315729763" duration="30.00"/>
        <stop busStop="8210106347" duration="30.00"/>
        <stop busStop="5173125170" duration="30.00"/>
        <stop busStop="8210106346" duration="30.00"/>
    </vehicle>

    <vehicle id="18_bus_N28:1" type="pt_bus" depart="201.00" departLane="1" arrival="503.00">
        <route edges="-4751867#2 -4751867#1 -4751867#0 -4079509#24 -4079509#23 -4079509#22 -4079509#21 -4079509#19 -4079509#18 -4079509#17 -4079509#16 -4079509#15 -4079509#14 -4079509#13 -4079509#12 -4079509#11 -4079509#10 -4079509#9 -4079509#8 -4079509#7 -4079509#6 -4079509#5 -4079509#4 -4079509#3 -4079509#2 359739475#0 359739475#1 359739475#2 359739475#3 359739475#4"/>
        <stop busStop="-5728520762" duration="30.00"/>
        <stop busStop="-5728520761" duration="30.00"/>
        <stop busStop="-5728520760" duration="30.00"/>
        <stop busStop="2610196515" duration="30.00"/>
    </vehicle>

    <vehicle id="16_bus_N15:1" type="pt_bus" depart="165.00" departLane="1" arrival="507.00">
        <route edges="920602947#0 920602947#4 920602947#5 920602947#7 920602947#8 920602947#9 906395262#0 906395262#1 906395262#2 239117584#0 246638753 4079520#0 4079520#1 8380809"/>
        <stop busStop="104459412" duration="30.00"/>
        <stop busStop="6315729763" duration="30.00"/>
    </vehicle>

    <vehicle id="35_bus_150:0" type="pt_bus" depart="437.00" departLane="1" arrival="508.00">
        <route edges="246548945#0 -246548945#0"/>
        <stop busStop="8357830511" duration="30.00"/>
    </vehicle>

    <vehicle id="27_bus_V17:0" type="pt_bus" depart="353.00" departLane="1" arrival="509.00">
        <route edges="-126715484#0 -427046677#0 -4752296#5 -4752296#4 -4752296#3 -4752296#2"/>
        <stop busStop="-1404018064" duration="30.00"/>
        <stop busStop="-30317892" duration="30.00"/>
    </vehicle>

    <vehicle id="7_bus_N0:0" type="pt_bus" depart="55.00" departLane="1" arrival="515.00">
        <route edges="4079520#1 245672931#0 245672931#2 246638753 8380803#2 309051278#2 462400263 185961564#3 185961564#5 185961564#6 880513897#2 880513897#3 880513897#5 827052044#2 525586872#2"/>
        <stop busStop="21638918" duration="30.00"/>
        <stop busStop="5603009325" duration="30.00"/>
        <stop busStop="5603009324" duration="30.00"/>
        <stop busStop="5603009323" duration="30.00"/>
        <stop busStop="8163708756" duration="30.00"/>
    </vehicle>

    <vehicle id="15_bus_N15:0" type="pt_bus" depart="174.00" departLane="1" arrival="524.00">
        <route edges="8380809 239117583#0 239117583#1 239117583#2 239117583#3 239117583#4 239117583#5 239117583#6 239117583#7 239117583#8 239117583#9 239117583#10"/>
        <stop busStop="6315729763" duration="30.00"/>
        <stop busStop="5173125170" duration="30.00"/>
        <stop busStop="8210106347" duration="30.00"/>
    </vehicle>

    <vehicle id="26_bus_V15:1" type="pt_bus" depart="346.00" departLane="1" arrival="539.00">
        <route edges="291731094#0 291731094#1 291731094#2 902517724#0 906391081 291731095#1 291731095#2 291731096#1 291731096#2 359735830#0 359735830#1 359735827#0 359735827#1 359735827#2 902517725#0 902517725#1 902517725#2 423227070#0 423227070#1 423227070#2 423227070#3 423227070#4 4079500#0 4079500#1"/>
    </vehicle>

    <vehicle id="32_bus_47:1" type="pt_bus" depart="406.00" departLane="2" arrival="557.00">
        <route edges="291731094#0 291731094#1 291731094#2 902517724#0 906391081 4079509#1 4079509#3 4079509#4 4079509#5 4079509#6 4079509#7 4079509#8 4079509#9 4079509#10 4079509#11 4079509#12 4079509#13 4079509#14 4079509#15 4079509#16 4079509#17 4079509#18 4079509#19 4079509#21 4079509#22 4079509#23 4079509#24 4751867#0 4751867#1 4751867#2"/>
    </vehicle>

    <vehicle id="42_bus_D50:0" type="pt_bus" depart="517.00" departLane="1" arrival="596.00">
        <route edges="906750214 237649293#0 237649293#1 237649293#3 246638755#0"/>
        <stop busStop="8180094958" duration="30.00"/>
    </vehicle>

    <vehicle id="24_bus_V13:1" type="pt_bus" depart="326.00" departLane="1" arrival="652.00">
        <route edges="920602947#0 920602947#4 920602947#5 920602947#7 920602947#8 920602947#9 906395262#0 906395262#1 906395262#2 239117584#0 246638753 4079520#0 4079520#1 914891586#2 4079513#1 4079513#2 4079513#3"/>
        <stop busStop="104459412" duration="30.00"/>
        <stop busStop="5609791814" duration="30.00"/>
        <stop busStop="5609791813" duration="30.00"/>
    </vehicle>

    <vehicle id="31_bus_47:0" type="pt_bus" depart="389.00" departLane="1" arrival="700.00">
        <route edges="-4751867#2 -4751867#1 -4751867#0 -4079509#24 -4079509#23 -4079509#22 -4079509#21 -4079509#19 -4079509#18 -4079509#17 -4079509#16 -4079509#15 -4079509#14 -4079509#13 -4079509#12 -4079509#11 -4079509#10 -4079509#9 -4079509#8 -4079509#7 -4079509#6 -4079509#5 -4079509#4 -4079509#3 -4079509#2 359739475#0 359739475#1 359739475#2 359739475#3 359739475#4"/>
        <stop busStop="-5728520762" duration="30.00"/>
        <stop busStop="-5728520761" duration="30.00"/>
        <stop busStop="-5728520760" duration="30.00"/>
        <stop busStop="2610196515" duration="30.00"/>
    </vehicle>

    <vehicle id="34_bus_59:1" type="pt_bus" depart="422.00" departLane="1" arrival="707.00">
        <route edges="-4751867#2 -4751867#1 -4751867#0 -4079509#24 -4079509#23 -4079509#22 -4079509#21 -4079509#19 -4079509#18 -4079509#17 -4079509#16 -4079509#15 -4079509#14 -4079509#13 -4079509#12 -4079509#11 -4079509#10 -4079509#9 -4079509#8 -4079509#7 -4079509#6 -4079509#5 -4079509#4 -4079509#3 -4079509#2 359739475#0 359739475#1 359739475#2"/>
        <stop busStop="-5728520762" duration="30.00"/>
        <stop busStop="-5728520761" duration="30.00"/>
        <stop busStop="-5728520760" duration="30.00"/>
    </vehicle>

    <vehicle id="10_bus_N6:1" type="pt_bus" depart="119.00" departLane="0" arrival="720.00">
        <route edges="-4079513#3 -4079513#2 -4079513#1 -4079513#0 245672931#0 245672931#2 246638753 8380803#2 309051278#2 462400263 185961564#3 185961564#5 185961564#6 880513897#2 880513897#3 880513897#5 827052044#2 881656434#0 237649291#2 237649292#0 237649292#1 906750214 237649293#0 237649293#1 237649293#3 246638755#0"/>
        <stop busStop="-5603009328" duration="30.00"/>
    </vehicle>

    <vehicle id="23_bus_V13:0" type="pt_bus" depart="321.00" departLane="0" arrival="723.00">
        <route edges="-4079513#3 -4079513#2 -4079513#1 -4079513#0 8380809 239117583#0 239117583#1 239117583#2 239117583#3 239117583#4 239117583#5 239117583#6 239117583#7 239117583#8 239117583#9 239117583#10"/>
        <stop busStop="-5603009328" duration="30.00"/>
        <stop busStop="-5603009327" duration="30.00"/>
        <stop busStop="-5643768378" duration="30.00"/>
        <stop busStop="5173125170" duration="30.00"/>
        <stop busStop="8210106347" duration="30.00"/>
    </vehicle>

    <vehicle id="43_bus_D50:1" type="pt_bus" depart="535.00" departLane="1" arrival="738.00">
        <route edges="542284837#0 542284837#3 556049572#2 556049572#3 867009429 881656434#0 237649291#2 237649292#0 237649292#1 906750214"/>
        <stop busStop="5609791819" duration="30.00"/>
        <stop busStop="5609791818" duration="30.00"/>
        <stop busStop="8180094958" duration="30.00"/>
    </vehicle>

    <vehicle id="25_bus_V15:0" type="pt_bus" depart="331.00" departLane="1" arrival="755.00">
        <route edges="-4079500#1 -4079500#0 -543357596 -423227070#3 -423227070#2 -423227070#1 -423227070#0 -902517725#2 -902517725#1 -902517725#0 423227071 997213890#0 997213890#1 545922500#0 545922500#1 359739476#0 359739476#1 359739476#3 359739476#5 359739475#0 359739475#1 359739475#2 359739475#3 359739475#4"/>
        <stop busStop="-8143303494" duration="30.00"/>
        <stop busStop="-1401485267" duration="30.00"/>
        <stop busStop="8143303493" duration="30.00"/>
        <stop busStop="8143303492" duration="30.00"/>
        <stop busStop="2610196515" duration="30.00"/>
    </vehicle>

    <vehicle id="22_bus_V11:1" type="pt_bus" depart="303.00" departLane="1" arrival="778.00">
        <route edges="542284837#0 542284837#3 556049572#2 556049572#3 867009429 86772200#2 827052043#2 827052043#3 827052043#6 880513895#2 880513895#3 880513895#6 880513895#8 8380793 548337280 294871189 283764975 450445885#2 542623450#0 542623450#1 542623450#2 542623450#3 542623450#4 542623450#5 882153784"/>
        <stop busStop="5609791819" duration="30.00"/>
        <stop busStop="5609791818" duration="30.00"/>
        <stop busStop="192328375" duration="30.00"/>
        <stop busStop="5609791816" duration="30.00"/>
        <stop busStop="8203768667" duration="30.00"/>
    </vehicle>

    <vehicle id="21_bus_V11:0" type="pt_bus" depart="253.00" departLane="1" arrival="811.00">
        <route edges="882153784 32465719#1 32465719#2 32465719#3 32465719#4 32465719#5 32465719#6 32465719#7 32465719#8 450445884 283764988 283764975 245672930 498952132 294871187#0 294871187#1 462400263 185961564#3 185961564#5 185961564#6 880513897#2 880513897#3 880513897#5 827052044#2 881656434#0 237649291#2 237649292#0 237649292#1 906750214 237649293#0 237649293#1 237649293#3 246638755#0"/>
        <stop busStop="8203768667" duration="30.00"/>
        <stop busStop="5603009324" duration="30.00"/>
        <stop busStop="5603009323" duration="30.00"/>
        <stop busStop="5603006494" duration="30.00"/>
    </vehicle>

    <vehicle id="37_bus_120:1" type="pt_bus" depart="483.00" departLane="1" arrival="843.00">
        <route edges="4746868#0 4746868#1 235748487#0 235748487#1 235748487#2 235748487#4 235748487#5 126328435#0 126328435#1 126328435#2 246640824#7 553238924#0 8380809 241975841#0 241975841#1 -217108057#1 -217108057#0 217108056#0 239662764#1 239662764#2 239662764#3 239662764#4 -10851867#4 -10851867#3 -10851867#1 246630085#2 10851770#0 10851770#2 10851770#3 10851770#5 10851770#6 10851770#7 10851770#8 10428122#1"/>
    </vehicle>

    <vehicle id="38_bus_121:0" type="pt_bus" depart="484.00" departLane="1" arrival="849.00">
        <route edges="48174566#0 553305787#1 553305787#4 553305787#7 553305786#0 140318962#1 140318962#2 314839720#1 314839720#2 76168863#1 76168863#4 76168863#6 76168863#7 76168863#9 76168863#10 136362730#0 136362730#1 136362730#2 136362730#3 136362730#4 136362730#5 136362730#6 136362730#7 136362730#8 136362730#9 553309964#0 553309964#1"/>
        <stop busStop="8330812755" duration="30.00"/>
        <stop busStop="8330812754" duration="30.00"/>
        <stop busStop="8330812753" duration="30.00"/>
        <stop busStop="8330812752" duration="30.00"/>
        <stop busStop="8330812751" duration="30.00"/>
        <stop busStop="8330812750" duration="30.00"/>
    </vehicle>

    <vehicle id="20_bus_H14:1" type="pt_bus" depart="227.00" departLane="0" arrival="864.00">
        <route edges="-4079513#3 -4079513#2 -4079513#1 -4079513#0 245672931#0 245672931#2 246638753 8380803#2 309051278#2 462400263 185961564#3 185961564#5 185961564#6 880513897#2 880513897#3 880513897#5 827052044#2 881656434#0"/>
        <stop busStop="-5603009328" duration="30.00"/>
        <stop busStop="-5603009327" duration="30.00"/>
        <stop busStop="-5643768378" duration="30.00"/>
        <stop busStop="5603009325" duration="30.00"/>
        <stop busStop="5603009324" duration="30.00"/>
        <stop busStop="5603009323" duration="30.00"/>
        <stop busStop="8199235071" duration="30.00"/>
    </vehicle>

    <vehicle id="45_bus_V19:1" type="pt_bus" depart="583.00" departLane="1" arrival="916.00">
        <route edges="291731094#0 291731094#1 291731094#2 902517724#0 906391081 291731095#1 291731095#2 291731096#1 291731096#2 359735830#0 359735830#1 359735827#0 359735827#1 359735827#2 902517725#0 902517725#1 902517725#2 423227070#0 423227070#1 423227070#2 423227070#3 423227070#4 4079500#0 4079500#1"/>
        <stop busStop="7802032345" duration="30.00"/>
        <stop busStop="826085074" duration="30.00"/>
        <stop busStop="8143303449" duration="30.00"/>
    </vehicle>

    <vehicle id="39_bus_121:1" type="pt_bus" depart="485.00" departLane="1" arrival="937.00">
        <route edges="553309964#1 896218296#1 553309965#0 553309963#0 553309963#1 4746227#0 4746227#1 4746227#2 4746227#3 4746227#4 4746227#5 553309960#0 553309960#1 314839726#0 314839726#1 314839726#2 76168863#1 76168863#4 76168863#6 76168863#7 76168863#9 76168863#10 261716933#0 261716933#1 827052044#2 881656434#0 237649291#2 237649292#0 237649292#1 906750214 237649293#0 237649293#1 237649293#3 246638755#0"/>
        <stop busStop="8330812750" duration="30.00"/>
        <stop busStop="8330812749" duration="30.00"/>
        <stop busStop="8330812748" duration="30.00"/>
        <stop busStop="8330812747" duration="30.00"/>
        <stop busStop="5603006494" duration="30.00"/>
    </vehicle>

    <vehicle id="44_bus_V19:0" type="pt_bus" depart="574.00" departLane="1" arrival="951.00">
        <route edges="-4079500#1 -4079500#0 -543357596 -423227070#3 -423227070#2 -423227070#1 -423227070#0 -902517725#2 -902517725#1 -902517725#0 423227071 997213890#0 997213890#1 545922500#0 545922500#1 359739476#0 359739476#1 359739476#3 359739476#5 359739475#0 359739475#1 359739475#2 359739475#3 359739475#4"/>
        <stop busStop="-8143303494" duration="30.00"/>
        <stop busStop="-1401485267" duration="30.00"/>
        <stop busStop="8143303493" duration="30.00"/>
        <stop busStop="8143303492" duration="30.00"/>
        <stop busStop="2610196515" duration="30.00"/>
    </vehicle>

    <vehicle id="29_bus_21:0" type="pt_bus" depart="371.00" departLane="0" arrival="981.00">
        <route edges="18506914 18507616#0 18507616#1 16367702#1 16367702#2 4746864#0 4746864#1 4746864#2 4746864#3 4746864#4 4746864#5 4746864#6 4746864#7 880513895#6 880513895#8 185961564#3 185961564#5 185961564#6 880513897#2 880513897#3 880513897#5 827052044#2 881656434#0"/>
        <stop busStop="8234311065" duration="30.00"/>
        <stop busStop="5603009324" duration="30.00"/>
        <stop busStop="5603009323" duration="30.00"/>
        <stop busStop="7802014400" duration="30.00"/>
    </vehicle>

    <vehicle id="0_bus_Tourist_red:0" type="pt_bus" depart="3.00" departLane="1" arrival="989.00">
        <route edges="246548945#0 246548945#1 246548945#2 126754105 557129738 550888669#0 550888669#1 294123479#0 44866136 180793106 309189481 960099379 474464194#0 474464194#1 -413441088#4 -413441088#3 -413441088#2 -413441088#1 -413441088#0 -553309962#0 -553309963#1 -553309963#0 -16367702#6 -16367702#5 -16367702#3 -16367702#2 -16367702#1 18507616#3 18507616#4 548337280 294871189 283764975 450445885#2 542623450#0 542623450#1 542623450#2 542623450#3 542623450#4 542623450#5 882153784 32465719#1 32465719#2 32465719#3 32465719#4 32465719#5 32465719#6 32465719#7 32465719#8 450445884 283764988 283764975 245672930 498952133#0 498952133#1 4079520#0 4079520#1 126715484#1 -126715484#1 -126715484#0 -427046677#0 -4752296#5 -4752296#4 -4752296#3 -4752296#2"/>
        <stop busStop="1404685236" duration="30.00"/>
        <stop busStop="5176810321" duration="30.00"/>
        <stop busStop="1404002861" duration="30.00"/>
    </vehicle>

    <vehicle id="33_bus_59:0" type="pt_bus" depart="418.00" departLane="1" arrival="1002.00">
        <route edges="920602947#0 920602947#4 920602947#5 920602947#7 920602947#8 920602947#9 906395262#0 906395262#1 906395262#2 239117584#0 246638753 4079520#0 4079520#1 914891586#2"/>
        <stop busStop="104459412" duration="30.00"/>
        <stop busStop="5609791814" duration="30.00"/>
    </vehicle>

    <vehicle id="9_bus_N6:0" type="pt_bus" depart="93.00" departLane="1" arrival="1033.00">
        <route edges="542284837#0 542284837#3 556049572#2 556049572#3 867009429 86772200#2 827052043#2 827052043#3 827052043#6 880513895#2 880513895#3 880513895#6 880513895#8 8380793 548337280 294871189 283764975 245672930 498952133#0 498952133#1 4079520#0 4079520#1 914891586#2 4079513#1 4079513#2 4079513#3"/>
    </vehicle>

    <vehicle id="30_bus_21:1" type="pt_bus" depart="383.00" departLane="1" arrival="1083.00">
        <route edges="881656434#0 237649291#2 237649292#0 237649292#1 906750214 4745952#3 4745952#5 542284838#0 542284838#1 542284838#2 542284838#3 556049572#2 556049572#3 867009429 86772200#2 827052043#2 827052043#3 827052043#6 880513895#2 880513895#3 880513895#6 880513895#8 8380793 18506598#0 18506598#1 18506598#2 18506598#3 79304108#1 79304108#2 4746860"/>
        <stop busStop="7802014400" duration="30.00"/>
        <stop busStop="5609791818" duration="30.00"/>
        <stop busStop="192328375" duration="30.00"/>
        <stop busStop="5609791816" duration="30.00"/>
        <stop busStop="8234311093" duration="30.00"/>
    </vehicle>

    <vehicle id="41_bus_88:1" type="pt_bus" depart="508.00" departLane="1" arrival="1134.00">
        <route edges="49542094#2 297207987#1 49542095#0 49542095#1 49542095#2 49542095#4 283764989#0 283764989#1 283764988 283764975 245672930 498952132 294871187#0 294871187#1 462400263 185961564#3 185961564#5 185961564#6 880513897#2 880513897#3 880513897#5 827052044#2 525586872#2 556049572#2 556049572#3"/>
        <stop busStop="5368499197" duration="30.00"/>
        <stop busStop="5026646853" duration="30.00"/>
        <stop busStop="192327539" duration="30.00"/>
        <stop busStop="5024685799@7944787" duration="30.00"/>
    </vehicle>

    <vehicle id="36_bus_120:0" type="pt_bus" depart="441.00" departLane="1" arrival="1172.00">
        <route edges="-10428122#1 10851731#1 10851731#2 10851731#3 10851731#4 10851731#5 10851731#6 10851731#7 10851731#8 10851731#9 10851731#10 553234917#0 10851867#1 10851867#3 10851867#4 11297310#1 11297310#2 11297310#3 11297310#4 295215796#1 217108057#0 217108057#1 239117584#0 246638753 4079520#0 4079520#1 914891586#2 4079513#1 4079513#2 4079513#3"/>
        <stop busStop="8328305436" duration="30.00"/>
        <stop busStop="8328305435" duration="30.00"/>
        <stop busStop="8328305434" duration="30.00"/>
        <stop busStop="8328305433" duration="30.00"/>
        <stop busStop="5609791814" duration="30.00"/>
        <stop busStop="5609791813" duration="30.00"/>
    </vehicle>

    <vehicle id="40_bus_88:0" type="pt_bus" depart="497.00" departLane="1" arrival="1181.00">
        <route edges="867009429 86772200#2 827052043#2 827052043#3 827052043#6 880513895#2 880513895#3 880513895#6 880513895#8 8380793 548337280 18508391#0 18508391#1 40653591#0 40653591#1 40653591#3 49542094#0 49542094#1 49542094#2"/>
        <stop busStop="5024685799" duration="30.00"/>
        <stop busStop="5024694587" duration="30.00"/>
        <stop busStop="5368382512" duration="30.00"/>
    </vehicle>

    <vehicle id="19_bus_H14:0" type="pt_bus" depart="204.00" departLane="1" arrival="1211.00">
        <route edges="881656434#0 237649291#2 237649292#0 237649292#1 906750214 4745952#3 4745952#5 542284838#0 542284838#1 542284838#2 542284838#3 556049572#2 556049572#3 867009429 86772200#2 827052043#2 827052043#3 827052043#6 880513895#2 880513895#3 880513895#6 880513895#8 8380793 548337280 294871189 283764975 245672930 498952133#0 498952133#1 4079520#0 4079520#1 914891586#2 4079513#1 4079513#2 4079513#3"/>
        <stop busStop="8199235071" duration="30.00"/>
        <stop busStop="5609791818" duration="30.00"/>
        <stop busStop="192328375" duration="30.00"/>
        <stop busStop="5609791816" duration="30.00"/>
        <stop busStop="5609791815" duration="30.00"/>
        <stop busStop="5609791814" duration="30.00"/>
        <stop busStop="5609791813" duration="30.00"/>
    </vehicle>

    <vehicle id="1_subway_L3:0" type="pt_subway" depart="15.00" departLane="0" arrival="1356.00">
        <route edges="38912601#0 38912601#1 38912601#3 38912601#4"/>
        <stop busStop="3699659475" duration="30.00"/>
        <stop busStop="462259779" duration="30.00"/>
        <stop busStop="1238021418" duration="30.00"/>
        <stop busStop="462274207" duration="30.00"/>
        <stop busStop="462274208" duration="30.00"/>
        <stop busStop="462274209" duration="30.00"/>
        <stop busStop="108253724" duration="30.00"/>
        <stop busStop="108253730" duration="30.00"/>
        <stop busStop="462274210" duration="30.00"/>
        <stop busStop="462274211" duration="30.00"/>
        <stop busStop="108253748" duration="30.00"/>
        <stop busStop="462274212" duration="30.00"/>
        <stop busStop="1417669619" duration="30.00"/>
        <stop busStop="108229618" duration="30.00"/>
        <stop busStop="462274213" duration="30.00"/>
        <stop busStop="108229629" duration="30.00"/>
        <stop busStop="1043786437" duration="30.00"/>
        <stop busStop="2526271760" duration="30.00"/>
        <stop busStop="5310050887" duration="30.00"/>
    </vehicle>

    <vehicle id="5_subway_L3:1" type="pt_subway" depart="47.00" departLane="0" arrival="3888.00">
        <route edges="332758526#5 -332758526#5 -332758526#4 -332758526#3 -332758526#2 -332758526#0 332758526#0 332758526#1 332758526#3 332758526#4 332758526#5 -332758526#5 -332758526#4 -332758526#3 -332758526#2 -332758526#0 332758526#0 332758526#1 332758526#3 332758526#4 332758526#5 -332758526#5 -332758526#4 -332758526#3 -332758526#2 -332758526#0 332758526#0 332758526#1 332758526#3 332758526#4 332758526#5 -332758526#5 -332758526#4 -332758526#3 -332758526#2 -332758526#0 332758526#0"/>
        <stop busStop="5310050767" duration="30.00"/>
        <stop busStop="-3398928336" duration="30.00"/>
        <stop busStop="-3398928329" duration="30.00"/>
        <stop busStop="-3398928297" duration="30.00"/>
        <stop busStop="-3398928319" duration="30.00"/>
        <stop busStop="-3398923289" duration="30.00"/>
        <stop busStop="-3398928330" duration="30.00"/>
        <stop busStop="-3398928295" duration="30.00"/>
        <stop busStop="3398928307" duration="30.00"/>
        <stop busStop="-3398928318" duration="30.00"/>
        <stop busStop="-3398928359" duration="30.00"/>
        <stop busStop="-3398928331" duration="30.00"/>
        <stop busStop="7778850858" duration="30.00"/>
        <stop busStop="-3398928324" duration="30.00"/>
        <stop busStop="-3398928325" duration="30.00"/>
        <stop busStop="-3398928360" duration="30.00"/>
        <stop busStop="3398923286" duration="30.00"/>
        <stop busStop="-3398928341" duration="30.00"/>
        <stop busStop="3398928355" duration="30.00"/>
    </vehicle>

</routes>
